 Gaussian 09, Revision D.01,
 Gaussian 09:  ES64L-G09RevD.01 24-Apr-2013

 ------------------------------------------------
 #p wb97xd 6-311+G(d) nosymm td=(nstates=5,50-50)
 ------------------------------------------------

 ------------------------------
 m1 tddft singlets and triplets
 ------------------------------
 Symbolic Z-matrix:
 Charge =  0 Multiplicity = 1

                          Input orientation:
 ---------------------------------------------------------------------
 Center     Atomic      Atomic             Coordinates (Angstroms)
 Number     Number       Type             X           Y           Z
 ---------------------------------------------------------------------
      1          6           0        0.342004   -0.131469    0.179169
      2          6           0        0.739704    0.303436    1.446236
      3          6           0        2.056143    0.162706    1.867535
      4          6           0        3.002234   -0.412011    1.026643
      5          6           0        2.620212   -0.846902   -0.237352
      6          6           0        1.302609   -0.709452   -0.655239
      7          1           0        0.014573    0.778236    2.100177
      8          1           0        2.345081    0.513722    2.853109
      9          1           0        4.031153   -0.519928    1.354102
     10          1           0        3.348945   -1.303963   -0.899274
     11          1           0        1.009690   -1.075707   -1.634413
     12          6           0       -1.063162    0.015526   -0.271506
     13          6           0       -1.364853    0.452688   -1.566429
     14          6           0       -2.672640    0.587428   -1.993368
     15          6           0       -3.731293    0.285900   -1.134133
     16          6           0       -3.451545   -0.145668    0.161175
     17          6           0       -2.129202   -0.277158    0.574573
     18          1           0       -0.558804    0.713414   -2.245368
     19          1           0       -2.901240    0.932723   -2.995567
     20          8           0       -4.973735    0.428884   -1.660570
     21          1           0       -4.243127   -0.392313    0.857916
     22          1           0       -1.931075   -0.637860    1.579407
     23          6           0       -6.111471    0.233930   -0.836539
     24          1           0       -6.936106    0.096021   -1.539043
     25          1           0       -6.015472   -0.699160   -0.267614
     26          6           0       -6.392000    1.419306    0.075981
     27          6           0       -7.602907    1.173560    0.973339
     28          1           0       -5.512664    1.636447    0.691932
     29          1           0       -6.558000    2.304620   -0.547656
     30          6           0       -7.946560    2.381937    1.838334
     31          1           0       -8.469626    0.907930    0.355667
     32          1           0       -7.410924    0.305684    1.616171
     33          1           0       -8.810767    2.182970    2.477437
     34          1           0       -7.108891    2.655855    2.486825
     35          1           0       -8.183942    3.253545    1.220956
 ---------------------------------------------------------------------

 SCF Done:  E(RwB97XD) =  -695.686744818     A.U. after   16 cycles

 Excitation energies and oscillator strengths:

 Excited state symmetry could not be determined.
 Excited State   1:      Triplet-?Sym    3.3668 eV  368.25 nm  f=0.0000  <S**2>=2.000
      58 -> 62         0.12774
      58 -> 71         0.11025
      58 -> 72        -0.10920
      59 -> 63         0.22686
      60 -> 64        -0.19647
      61 -> 62         0.55797
 This state for optimization and/or second-order correction.
 Total Energy, E(TD-HF/TD-KS) =  -695.563015929
 Copying the excited state density for this state as the 1-particle RhoCI density.

 Excited state symmetry could not be determined.
 Excited State   2:      Triplet-?Sym    3.8969 eV  318.16 nm  f=0.0000  <S**2>=2.000
      58 -> 62        -0.31234
      59 -> 62         0.12835
      59 -> 63         0.27456
      60 -> 64         0.34552
      60 -> 65         0.14555
      61 -> 63         0.11418
      61 -> 71        -0.19111
      61 -> 72         0.18473
      61 -> 74        -0.11137

 Excited state symmetry could not be determined.
 Excited State   3:      Triplet-?Sym    4.1470 eV  298.98 nm  f=0.0000  <S**2>=2.000
      58 -> 63        -0.17668
      61 -> 63         0.65399

 Excited state symmetry could not be determined.
 Excited State   4:      Triplet-?Sym    4.5922 eV  269.99 nm  f=0.0000  <S**2>=2.000
      58 -> 63         0.14736
      59 -> 63         0.49637
      60 -> 64        -0.29401
      60 -> 65        -0.12305
      61 -> 62        -0.30893

 Excited state symmetry could not be determined.
 Excited State   5:      Triplet-?Sym    4.6324 eV  267.64 nm  f=0.0000  <S**2>=2.000
      58 -> 64         0.34894
      58 -> 65         0.14635
      59 -> 64        -0.11537
      60 -> 62        -0.25905
      61 -> 64         0.45236
      61 -> 65         0.18549

 Excited state symmetry could not be determined.
 Excited State   6:      Singlet-?Sym    4.9840 eV  248.76 nm  f=0.0275  <S**2>=0.000
      58 -> 63        -0.10954
      59 -> 62        -0.23058
      61 -> 63         0.61650

 Excited state symmetry could not be determined.
 Excited State   7:      Singlet-?Sym    5.1436 eV  241.05 nm  f=0.5751  <S**2>=0.000
      59 -> 63         0.10236
      61 -> 62         0.66667

 Excited state symmetry could not be determined.
 Excited State   8:      Singlet-?Sym    5.2426 eV  236.49 nm  f=0.0020  <S**2>=0.000
      58 -> 64         0.26001
      58 -> 65         0.10857
      60 -> 62         0.38277
      61 -> 64         0.44620
      61 -> 65         0.16769

 Excited state symmetry could not be determined.
 Excited State   9:      Singlet-?Sym    6.0469 eV  205.04 nm  f=0.0060  <S**2>=0.000
      60 -> 62         0.11651
      61 -> 64        -0.32417
      61 -> 65         0.47015
      61 -> 66         0.11939
      61 -> 68        -0.15966
      61 -> 69        -0.18057
      61 -> 77         0.10534

 Excited state symmetry could not be determined.
 Excited State  10:      Singlet-?Sym    6.1318 eV  202.20 nm  f=0.0106  <S**2>=0.000
      58 -> 62         0.30759
      59 -> 62        -0.16706
      59 -> 63        -0.24210
      60 -> 64        -0.28648
      60 -> 65        -0.12059
      61 -> 67         0.19012
      61 -> 70        -0.12161
      61 -> 71         0.25278
      61 -> 72        -0.20471

 Alpha  occ. eigenvalues --  -19.27779 -10.35015 -10.34021 -10.29826 -10.29217
 Alpha  occ. eigenvalues --  -10.29130 -10.28971 -10.28825 -10.28819 -10.28818
 Alpha  occ. eigenvalues --  -10.28802 -10.28665 -10.28650 -10.28634 -10.28448
 Alpha  occ. eigenvalues --  -10.28298 -10.27549  -1.17510  -0.97505  -0.95333
 Alpha  occ. eigenvalues --   -0.91156  -0.88000  -0.85629  -0.84743  -0.84020
 Alpha  occ. eigenvalues --   -0.81082  -0.75378  -0.72056  -0.70611  -0.69228
 Alpha  occ. eigenvalues --   -0.68913  -0.66975  -0.63361  -0.61222  -0.58914
 Alpha  occ. eigenvalues --   -0.56798  -0.56405  -0.55111  -0.53844  -0.53415
 Alpha  occ. eigenvalues --   -0.53034  -0.51522  -0.50958  -0.50508  -0.49846
 Alpha  occ. eigenvalues --   -0.48344  -0.47195  -0.46858  -0.46240  -0.44477
 Alpha  occ. eigenvalues --   -0.43967  -0.43074  -0.42585  -0.42312  -0.41731
 Alpha  occ. eigenvalues --   -0.40425  -0.40183  -0.33949  -0.33377  -0.33113
 Alpha  occ. eigenvalues --   -0.28425
 Alpha virt. eigenvalues --    0.03779   0.05396   0.05568   0.05705   0.06550
 Alpha virt. eigenvalues --    0.07093   0.07544   0.07655   0.08039   0.08901
 Alpha virt. eigenvalues --    0.09238   0.09543   0.10067   0.10295   0.10831

 Mulliken charges:
               1
     1  C    1.380128
     2  C   -0.796379
     3  C   -0.275490
     4  C   -0.470123
     5  C   -0.296574
     6  C   -0.772034
     7  H    0.242265
     8  H    0.239580
     9  H    0.240812
    10  H    0.240391
    11  H    0.244316
    12  C    1.348450
    13  C   -0.567033
    14  C   -0.679248
    15  C   -0.228212
    16  C   -0.097810
    17  C   -0.897820
    18  H    0.246273
    19  H    0.248626
    20  O    0.022210
    21  H    0.256558
    22  H    0.242151
    23  C   -0.628398
    24  H    0.270169
    25  H    0.259704
    26  C   -0.265817
    27  C   -0.323795
    28  H    0.281226
    29  H    0.259220
    30  C   -1.001913
    31  H    0.250057
    32  H    0.247367
    33  H    0.262768
    34  H    0.258436
    35  H    0.259939
 Sum of Mulliken charges =   0.00000

 Dipole moment (field-independent basis, Debye):
    X=             -1.3669    Y=              0.0189    Z=              1.0864  Tot=              1.7461
 Quadrupole moment (field-independent basis, Debye-Ang):
   XX=            -81.3923   YY=           -106.7118   ZZ=            -98.1825
   XY=             -2.0277   XZ=             -5.2735   YZ=              1.0819

 Normal termination of Gaussian 09 at Mon Oct  2 17:23:44 2017.
