 Gaussian 09, Revision D.01,
 Gaussian 09:  ES64L-G09RevD.01 24-Apr-2013

 ------------------------------------------------
 #p wb97xd 6-311+G(d) nosymm td=(nstates=5,50-50)
 ------------------------------------------------

 ------------------------------
 m1 tddft singlets and triplets
 ------------------------------
 Symbolic Z-matrix:
 Charge =  0 Multiplicity = 1

                          Input orientation:
 ---------------------------------------------------------------------
 Center     Atomic      Atomic             Coordinates (Angstroms)
 Number     Number       Type             X           Y           Z
 ---------------------------------------------------------------------
      1          6           0        0.318128   -0.149370    0.154250
      2          6           0        0.696000   -0.319956    1.544013
      3          6           0        2.017379   -0.385401    1.919392
      4          6           0        3.046292   -0.294344    0.972525
      5          6           0        2.715748   -0.136874   -0.387130
      6          6           0        1.407687   -0.065892   -0.792582
      7          1           0       -0.063578   -0.395022    2.311537
      8          1           0        2.264888   -0.509088    2.969394
      9          1           0        4.084641   -0.346437    1.281842
     10          1           0        3.506830   -0.071910   -1.127651
     11          1           0        1.201384    0.048774   -1.849650
     12          6           0       -1.030102   -0.065268   -0.240325
     13          6           0       -1.425572    0.128890   -1.620536
     14          6           0       -2.733661    0.193854   -1.993538
     15          6           0       -3.770909    0.071493   -1.032857
     16          6           0       -3.436884   -0.105557    0.323463
     17          6           0       -2.122380   -0.167240    0.715365
     18          1           0       -0.669592    0.229367   -2.388370
     19          1           0       -3.014701    0.338198   -3.030917
     20          8           0       -5.018699    0.127061   -1.530277
     21          1           0       -4.209293   -0.192371    1.078279
     22          1           0       -1.911624   -0.297232    1.767972
     23          6           0       -6.141304    0.075651   -0.659145
     24          1           0       -6.977821   -0.178286   -1.312626
     25          1           0       -6.022359   -0.746634    0.056563
     26          6           0       -6.401431    1.400458    0.044105
     27          6           0       -7.630226    1.326987    0.947834
     28          1           0       -5.524429    1.692902    0.631319
     29          1           0       -6.538040    2.177810   -0.715543
     30          6           0       -7.917785    2.647678    1.654582
     31          1           0       -8.503723    1.031555    0.354105
     32          1           0       -7.488998    0.536205    1.694907
     33          1           0       -8.802390    2.573499    2.292132
     34          1           0       -7.077088    2.949587    2.286266
     35          1           0       -8.094044    3.451792    0.933910
 ---------------------------------------------------------------------

 SCF Done:  E(RwB97XD) =  -695.669782973     A.U. after   16 cycles

 Excitation energies and oscillator strengths:

 Excited state symmetry could not be determined.
 Excited State   1:      Triplet-?Sym    2.2450 eV  552.26 nm  f=0.0000  <S**2>=2.000
      60 -> 63         0.11204
      61 -> 62         0.67442
      61 <- 62         0.14240
 This state for optimization and/or second-order correction.
 Total Energy, E(TD-HF/TD-KS) =  -695.587279414
 Copying the excited state density for this state as the 1-particle RhoCI density.

 Excited state symmetry could not be determined.
 Excited State   2:      Triplet-?Sym    3.7687 eV  328.98 nm  f=0.0000  <S**2>=2.000
      59 -> 62        -0.10552
      61 -> 63         0.61818
      61 -> 68        -0.14467

 Excited state symmetry could not be determined.
 Excited State   3:      Triplet-?Sym    3.8941 eV  318.39 nm  f=0.0000  <S**2>=2.000
      56 -> 62        -0.11505
      58 -> 62         0.34187
      59 -> 62         0.21833
      59 -> 63         0.16917
      60 -> 63         0.12330
      60 -> 67        -0.12702
      60 -> 68         0.16459
      61 -> 63         0.21842
      61 -> 73         0.19320
      61 -> 74         0.23302
      61 -> 75         0.13206
      61 -> 77         0.10080

 Excited state symmetry could not be determined.
 Excited State   4:      Singlet-?Sym    4.0201 eV  308.41 nm  f=0.7300  <S**2>=0.000
      61 -> 62         0.69296

 Excited state symmetry could not be determined.
 Excited State   5:      Triplet-?Sym    4.3532 eV  284.81 nm  f=0.0000  <S**2>=2.000
      58 -> 63         0.21108
      59 -> 63         0.11868
      60 -> 62         0.28982
      61 -> 67        -0.33048
      61 -> 68         0.41438

 Excited state symmetry could not be determined.
 Excited State   6:      Singlet-?Sym    4.4566 eV  278.20 nm  f=0.0119  <S**2>=0.000
      59 -> 62         0.11444
      60 -> 62        -0.20058
      61 -> 63         0.63905

 Excited state symmetry could not be determined.
 Excited State   7:      Triplet-?Sym    4.6209 eV  268.31 nm  f=0.0000  <S**2>=2.000
      58 -> 68         0.13285
      59 -> 63         0.24640
      59 -> 67         0.15826
      59 -> 68        -0.22255
      60 -> 62        -0.30978
      60 -> 63        -0.37856
      60 -> 68        -0.12221
      61 -> 62         0.15602

 Excited state symmetry could not be determined.
 Excited State   8:      Singlet-?Sym    4.9762 eV  249.16 nm  f=0.0031  <S**2>=0.000
      58 -> 62         0.13728
      58 -> 63         0.15816
      59 -> 62        -0.29014
      60 -> 62        -0.30034
      61 -> 67        -0.29781
      61 -> 68         0.37885

 Excited state symmetry could not be determined.
 Excited State   9:      Singlet-?Sym    5.5718 eV  222.52 nm  f=0.0008  <S**2>=0.000
      61 -> 64         0.56947
      61 -> 65         0.28327
      61 -> 69         0.17031
      61 -> 77        -0.10106

 Excited state symmetry could not be determined.
 Excited State  10:      Singlet-?Sym    5.6967 eV  217.64 nm  f=0.0096  <S**2>=0.000
      59 -> 62        -0.27873
      60 -> 62         0.54815
      61 -> 63         0.26521

 Alpha  occ. eigenvalues --  -19.28283 -10.35642 -10.34380 -10.30458 -10.29886
 Alpha  occ. eigenvalues --  -10.29725 -10.29364 -10.29027 -10.28992 -10.28812
 Alpha  occ. eigenvalues --  -10.28750 -10.28709 -10.28656 -10.28633 -10.28573
 Alpha  occ. eigenvalues --  -10.28474 -10.27673  -1.18196  -0.96886  -0.94590
 Alpha  occ. eigenvalues --   -0.91366  -0.87966  -0.86153  -0.84813  -0.84077
 Alpha  occ. eigenvalues --   -0.80202  -0.75738  -0.72377  -0.71045  -0.69157
 Alpha  occ. eigenvalues --   -0.68067  -0.66956  -0.63590  -0.61120  -0.59005
 Alpha  occ. eigenvalues --   -0.57730  -0.56550  -0.55390  -0.53275  -0.53099
 Alpha  occ. eigenvalues --   -0.52730  -0.52186  -0.50779  -0.50139  -0.49822
 Alpha  occ. eigenvalues --   -0.48415  -0.47475  -0.46896  -0.46462  -0.44327
 Alpha  occ. eigenvalues --   -0.44241  -0.43562  -0.43173  -0.42187  -0.41564
 Alpha  occ. eigenvalues --   -0.40612  -0.39671  -0.34582  -0.34003  -0.33187
 Alpha  occ. eigenvalues --   -0.26247
 Alpha virt. eigenvalues --    0.01210   0.04752   0.05646   0.06545   0.07005
 Alpha virt. eigenvalues --    0.07350   0.07518   0.07645   0.08064   0.08964
 Alpha virt. eigenvalues --    0.09568   0.09759   0.10423   0.10694   0.11061

 Mulliken charges:
               1
     1  C    0.826396
     2  C   -0.063627
     3  C   -0.850595
     4  C   -0.307194
     5  C   -0.740827
     6  C   -0.132471
     7  H    0.241957
     8  H    0.238397
     9  H    0.239943
    10  H    0.239037
    11  H    0.242056
    12  C    0.917931
    13  C   -0.424663
    14  C   -0.431555
    15  C   -0.393190
    16  C   -0.201044
    17  C   -0.524237
    18  H    0.246000
    19  H    0.247385
    20  O    0.028837
    21  H    0.252434
    22  H    0.243135
    23  C   -0.605513
    24  H    0.270993
    25  H    0.260595
    26  C   -0.308153
    27  C   -0.319250
    28  H    0.276224
    29  H    0.263536
    30  C   -1.015064
    31  H    0.252419
    32  H    0.247634
    33  H    0.263482
    34  H    0.258952
    35  H    0.260039
 Sum of Mulliken charges =   0.00000

 Dipole moment (field-independent basis, Debye):
    X=             -1.9678    Y=              0.2684    Z=              0.9768  Tot=              2.2132
 Quadrupole moment (field-independent basis, Debye-Ang):
   XX=            -78.8787   YY=           -109.1531   ZZ=            -95.6084
   XY=             -1.9420   XZ=             -6.0893   YZ=             -1.8661

 Normal termination of Gaussian 09 at Mon Oct  2 19:44:46 2017.
