 Gaussian 09, Revision D.01,
 Gaussian 09:  ES64L-G09RevD.01 24-Apr-2013

 ----------------------------------------------------------------------
 #p wb97xd 6-311+G(d) nosymm td=(nstates=2,50-50) geom=check guess=read
 ----------------------------------------------------------------------

 ------------------------------
 m1 tddft singlets and triplets
 ------------------------------
 Structure from the checkpoint file:  "m1-t1-opt.chk"
 Charge =  0 Multiplicity = 1

                          Input orientation:
 ---------------------------------------------------------------------
 Center     Atomic      Atomic             Coordinates (Angstroms)
 Number     Number       Type             X           Y           Z
 ---------------------------------------------------------------------
      1          6           0        0.298789   -0.137117    0.164138
      2          6           0        0.698683   -0.363425    1.553603
      3          6           0        2.014415   -0.422497    1.922170
      4          6           0        3.048804   -0.265008    0.971038
      5          6           0        2.706830   -0.041539   -0.384935
      6          6           0        1.401530    0.021643   -0.783916
      7          1           0       -0.057020   -0.491431    2.317409
      8          1           0        2.268059   -0.594280    2.963648
      9          1           0        4.088135   -0.315983    1.274537
     10          1           0        3.495501    0.080886   -1.120792
     11          1           0        1.190922    0.194892   -1.831157
     12          6           0       -1.032876   -0.079284   -0.225549
     13          6           0       -1.444279    0.136102   -1.618143
     14          6           0       -2.749356    0.176571   -1.982916
     15          6           0       -3.796562    0.015718   -1.024044
     16          6           0       -3.455257   -0.187962    0.333928
     17          6           0       -2.146359   -0.232820    0.726794
     18          1           0       -0.693881    0.265377   -2.386446
     19          1           0       -3.031955    0.333913   -3.018442
     20          8           0       -5.050946    0.048830   -1.529765
     21          1           0       -4.225681   -0.308147    1.086824
     22          1           0       -1.938305   -0.385961    1.776758
     23          6           0       -6.165882    0.037684   -0.650243
     24          1           0       -7.014752   -0.211108   -1.290170
     25          1           0       -6.064186   -0.772332    0.081923
     26          6           0       -6.390741    1.380367    0.029139
     27          6           0       -7.608725    1.357926    0.949759
     28          1           0       -5.499978    1.664741    0.599841
     29          1           0       -6.517238    2.144893   -0.745350
     30          6           0       -7.859077    2.705203    1.619632
     31          1           0       -8.496671    1.062897    0.377414
     32          1           0       -7.473216    0.587154    1.718592
     33          1           0       -8.730625    2.668549    2.278269
     34          1           0       -6.999239    3.012219    2.222750
     35          1           0       -8.036515    3.488209    0.876311
 ---------------------------------------------------------------------

 SCF Done:  E(RwB97XD) =  -695.661158174     A.U. after    1 cycles

 Excitation energies and oscillator strengths:

 Excited state symmetry could not be determined.
 Excited State   1:      Triplet-?Sym    1.9769 eV  627.16 nm  f=0.0000  <S**2>=2.000
      61 -> 62         0.68719
      61 <- 62         0.16576
 This state for optimization and/or second-order correction.
 Total Energy, E(TD-HF/TD-KS) =  -695.588507693
 Copying the excited state density for this state as the 1-particle RhoCI density.

 Excited state symmetry could not be determined.
 Excited State   2:      Triplet-?Sym    3.7293 eV  332.46 nm  f=0.0000  <S**2>=2.000
      58 -> 62        -0.13078
      59 -> 62        -0.15939
      61 -> 63         0.58722
      61 -> 68        -0.13472
      61 -> 74        -0.10123

 Excited state symmetry could not be determined.
 Excited State   3:      Singlet-?Sym    3.8237 eV  324.25 nm  f=0.7576  <S**2>=0.000
      61 -> 62         0.69541

 Excited state symmetry could not be determined.
 Excited State   4:      Singlet-?Sym    4.3961 eV  282.03 nm  f=0.0061  <S**2>=0.000
      59 -> 62         0.10739
      60 -> 62         0.20185
      61 -> 63         0.64038

 Alpha  occ. eigenvalues --  -19.28444 -10.35963 -10.34372 -10.30653 -10.30189
 Alpha  occ. eigenvalues --  -10.29937 -10.29567 -10.29203 -10.28991 -10.28881
 Alpha  occ. eigenvalues --  -10.28856 -10.28801 -10.28702 -10.28689 -10.28687
 Alpha  occ. eigenvalues --  -10.28641 -10.27667  -1.18066  -0.96687  -0.94377
 Alpha  occ. eigenvalues --   -0.91314  -0.87917  -0.86263  -0.84912  -0.84035
 Alpha  occ. eigenvalues --   -0.79963  -0.75759  -0.72341  -0.71040  -0.69156
 Alpha  occ. eigenvalues --   -0.67852  -0.66973  -0.63498  -0.61080  -0.58969
 Alpha  occ. eigenvalues --   -0.57883  -0.56488  -0.55417  -0.53239  -0.53024
 Alpha  occ. eigenvalues --   -0.52679  -0.52200  -0.50710  -0.50071  -0.49918
 Alpha  occ. eigenvalues --   -0.48408  -0.47454  -0.46992  -0.46350  -0.44226
 Alpha  occ. eigenvalues --   -0.44179  -0.43871  -0.43176  -0.42159  -0.41461
 Alpha  occ. eigenvalues --   -0.40541  -0.39440  -0.34644  -0.34146  -0.33335
 Alpha  occ. eigenvalues --   -0.25891
 Alpha virt. eigenvalues --    0.00619   0.04852   0.05626   0.06544   0.07009
 Alpha virt. eigenvalues --    0.07341   0.07584   0.07649   0.08057   0.08964
 Alpha virt. eigenvalues --    0.09560   0.09689   0.10395   0.10644   0.11039

 Mulliken charges:
               1
     1  C    0.801131
     2  C   -0.059977
     3  C   -0.845258
     4  C   -0.320708
     5  C   -0.702728
     6  C   -0.157967
     7  H    0.241489
     8  H    0.239112
     9  H    0.241307
    10  H    0.239293
    11  H    0.241820
    12  C    0.885849
    13  C   -0.439351
    14  C   -0.445749
    15  C   -0.360783
    16  C   -0.176464
    17  C   -0.493508
    18  H    0.247146
    19  H    0.247728
    20  O    0.025899
    21  H    0.250656
    22  H    0.243496
    23  C   -0.610119
    24  H    0.271240
    25  H    0.257312
    26  C   -0.304463
    27  C   -0.329944
    28  H    0.278363
    29  H    0.263481
    30  C   -1.010425
    31  H    0.252202
    32  H    0.247629
    33  H    0.263508
    34  H    0.258713
    35  H    0.260069
 Sum of Mulliken charges =   0.00000

 Dipole moment (field-independent basis, Debye):
    X=             -1.9910    Y=              0.3121    Z=              0.9727  Tot=              2.2377
 Quadrupole moment (field-independent basis, Debye-Ang):
   XX=            -79.0466   YY=           -109.1151   ZZ=            -95.7134
   XY=             -1.8629   XZ=             -6.1934   YZ=             -2.6565

 Normal termination of Gaussian 09 at Tue Oct  3 18:57:44 2017.
