 Gaussian 09, Revision D.01,
 Gaussian 09:  ES64L-G09RevD.01 24-Apr-2013

 ------------------------------------------------
 #p wb97xd 6-311+G(d) nosymm td=(nstates=5,50-50)
 ------------------------------------------------

 ------------------------------
 m4 tddft singlets and triplets
 ------------------------------
 Symbolic Z-matrix:
 Charge =  0 Multiplicity = 1

                          Input orientation:
 ---------------------------------------------------------------------
 Center     Atomic      Atomic             Coordinates (Angstroms)
 Number     Number       Type             X           Y           Z
 ---------------------------------------------------------------------
      1          6           0        0.338094   -0.125044    0.173504
      2          6           0        0.734141    0.334048    1.432469
      3          6           0        2.047373    0.191817    1.862515
      4          6           0        2.992216   -0.408786    1.038274
      5          6           0        2.612008   -0.866625   -0.218145
      6          6           0        1.297520   -0.726775   -0.645246
      7          1           0        0.009508    0.827982    2.072616
      8          1           0        2.335530    0.561789    2.841340
      9          1           0        4.018250   -0.519645    1.373626
     10          1           0        3.339886   -1.343946   -0.866516
     11          1           0        1.005020   -1.110903   -1.617741
     12          6           0       -1.065646    0.021555   -0.281874
     13          6           0       -1.364159    0.444351   -1.582904
     14          6           0       -2.670517    0.582842   -2.011890
     15          6           0       -3.728244    0.298909   -1.145539
     16          6           0       -3.453846   -0.125054    0.152119
     17          6           0       -2.131650   -0.257713    0.568001
     18          1           0       -0.555488    0.690574   -2.264157
     19          1           0       -2.897661    0.920667   -3.016917
     20          8           0       -4.974270    0.465516   -1.655844
     21          1           0       -4.249133   -0.364611    0.847237
     22          1           0       -1.934317   -0.611307    1.575374
     23          6           0       -6.078529    0.183301   -0.827847
     24          1           0       -6.963716    0.384245   -1.428693
     25          1           0       -6.085692   -0.866891   -0.515414
     26          1           0       -6.091076    0.827147    0.058593
 ---------------------------------------------------------------------

 SCF Done:  E(RwB97XD) =  -577.752919551     A.U. after   16 cycles

 Excitation energies and oscillator strengths:

 Excited state symmetry could not be determined.
 Excited State   1:      Triplet-?Sym    3.3847 eV  366.30 nm  f=0.0000  <S**2>=2.000
      46 -> 50         0.12354
      46 -> 58         0.15334
      47 -> 51        -0.22467
      48 -> 52         0.20690
      49 -> 50         0.55818
 This state for optimization and/or second-order correction.
 Total Energy, E(TD-HF/TD-KS) =  -577.628532330
 Copying the excited state density for this state as the 1-particle RhoCI density.

 Excited state symmetry could not be determined.
 Excited State   2:      Triplet-?Sym    3.8984 eV  318.04 nm  f=0.0000  <S**2>=2.000
      46 -> 50         0.30135
      47 -> 50         0.15696
      47 -> 51         0.28297
      48 -> 52         0.36886
      49 -> 51        -0.14319
      49 -> 58         0.25398
      49 -> 61         0.12100

 Excited state symmetry could not be determined.
 Excited State   3:      Triplet-?Sym    4.1909 eV  295.84 nm  f=0.0000  <S**2>=2.000
      46 -> 51        -0.19463
      49 -> 51         0.64029

 Excited state symmetry could not be determined.
 Excited State   4:      Triplet-?Sym    4.6038 eV  269.31 nm  f=0.0000  <S**2>=2.000
      46 -> 51        -0.16461
      47 -> 51         0.46486
      47 -> 52         0.11026
      48 -> 51         0.11771
      48 -> 52        -0.30998
      49 -> 50         0.31533

 Excited state symmetry could not be determined.
 Excited State   5:      Triplet-?Sym    4.6428 eV  267.05 nm  f=0.0000  <S**2>=2.000
      46 -> 52         0.35260
      47 -> 52         0.13515
      48 -> 50         0.27065
      49 -> 52         0.47540
      49 -> 53        -0.10898

 Excited state symmetry could not be determined.
 Excited State   6:      Singlet-?Sym    5.0171 eV  247.12 nm  f=0.0356  <S**2>=0.000
      46 -> 51        -0.11444
      47 -> 50         0.22976
      47 -> 58        -0.11642
      49 -> 50         0.16383
      49 -> 51         0.59215

 Excited state symmetry could not be determined.
 Excited State   7:      Singlet-?Sym    5.1895 eV  238.92 nm  f=0.5277  <S**2>=0.000
      49 -> 50         0.65405
      49 -> 51        -0.15153

 Excited state symmetry could not be determined.
 Excited State   8:      Singlet-?Sym    5.2533 eV  236.01 nm  f=0.0023  <S**2>=0.000
      46 -> 52         0.26310
      47 -> 52         0.10343
      48 -> 50        -0.38895
      48 -> 58        -0.12988
      49 -> 52         0.46278

 Excited state symmetry could not be determined.
 Excited State   9:      Singlet-?Sym    6.0837 eV  203.80 nm  f=0.0183  <S**2>=0.000
      46 -> 54         0.10461
      48 -> 50         0.13817
      49 -> 52         0.24876
      49 -> 53         0.53618
      49 -> 56        -0.17581
      49 -> 62         0.14294

 Excited state symmetry could not be determined.
 Excited State  10:      Singlet-?Sym    6.1533 eV  201.49 nm  f=0.0079  <S**2>=0.000
      46 -> 50         0.30224
      46 -> 51        -0.10461
      47 -> 50         0.24418
      47 -> 51         0.25478
      48 -> 52         0.33310
      49 -> 55         0.14308
      49 -> 57        -0.11404
      49 -> 58         0.30652

 Alpha  occ. eigenvalues --  -19.28282 -10.35131 -10.33881 -10.29908 -10.29378
 Alpha  occ. eigenvalues --  -10.29255 -10.29129 -10.28973 -10.28888 -10.28879
 Alpha  occ. eigenvalues --  -10.28740 -10.28733 -10.28722 -10.28513  -1.18032
 Alpha  occ. eigenvalues --   -0.97619  -0.95416  -0.88389  -0.85784  -0.84810
 Alpha  occ. eigenvalues --   -0.83684  -0.79424  -0.72159  -0.71173  -0.69347
 Alpha  occ. eigenvalues --   -0.67295  -0.63654  -0.61350  -0.58212  -0.56856
 Alpha  occ. eigenvalues --   -0.56691  -0.54057  -0.53725  -0.53106  -0.51547
 Alpha  occ. eigenvalues --   -0.50906  -0.50509  -0.47531  -0.47337  -0.45968
 Alpha  occ. eigenvalues --   -0.44944  -0.42847  -0.42453  -0.41423  -0.41089
 Alpha  occ. eigenvalues --   -0.34154  -0.33531  -0.33190  -0.28713
 Alpha virt. eigenvalues --    0.03695   0.05272   0.05505   0.05817   0.06553
 Alpha virt. eigenvalues --    0.07442   0.07914   0.08411   0.08922   0.09657
 Alpha virt. eigenvalues --    0.09721   0.09865   0.10664   0.11026   0.11233

 Mulliken charges:
               1
     1  C    1.144595
     2  C   -0.557375
     3  C   -0.488380
     4  C   -0.342368
     5  C   -0.450223
     6  C   -0.567041
     7  H    0.239019
     8  H    0.240886
     9  H    0.240422
    10  H    0.241148
    11  H    0.240742
    12  C    1.598726
    13  C   -0.711783
    14  C   -0.458791
    15  C   -0.717359
    16  C    0.399722
    17  C   -1.119148
    18  H    0.246836
    19  H    0.249961
    20  O   -0.053927
    21  H    0.247582
    22  H    0.243940
    23  C   -0.654110
    24  H    0.270446
    25  H    0.259059
    26  H    0.257422
 Sum of Mulliken charges =   0.00000

 Dipole moment (field-independent basis, Debye):
    X=             -1.0719    Y=             -0.3265    Z=              0.9286  Tot=              1.4553
 Quadrupole moment (field-independent basis, Debye-Ang):
   XX=            -64.1569   YY=            -86.9557   ZZ=            -78.3129
   XY=              0.2175   XZ=             -4.3905   YZ=              1.5257

 Normal termination of Gaussian 09 at Mon Oct  2 16:04:34 2017.
