 Gaussian 09, Revision D.01,
 Gaussian 09:  ES64L-G09RevD.01 24-Apr-2013

 ---------------------------------------
 #wb97xd 6-311+G(d) td=(nstates=2,50-50)
 ---------------------------------------

 ----------
 s1triplets
 ----------
 Symbolic Z-matrix:
 Charge =  0 Multiplicity = 1

                         Standard orientation:
 ---------------------------------------------------------------------
 Center     Atomic      Atomic             Coordinates (Angstroms)
 Number     Number       Type             X           Y           Z
 ---------------------------------------------------------------------
      1          6           0        1.589415    0.011878    0.000588
      2          6           0        2.273093   -1.267730    0.000352
      3          6           0        3.646531   -1.340314   -0.000354
      4          6           0        4.434342   -0.182043   -0.000457
      5          6           0        3.804040    1.077947    0.000767
      6          6           0        2.437299    1.183309    0.001435
      7          1           0        1.707434   -2.190385    0.000836
      8          1           0        4.126931   -2.313961   -0.000736
      9          1           0        5.516632   -0.254205   -0.001189
     10          1           0        4.407980    1.979996    0.001336
     11          1           0        1.995807    2.172301    0.002775
     12          6           0        0.184852    0.096185   -0.000421
     13          6           0       -0.517070    1.362411   -0.001154
     14          6           0       -1.876634    1.435326   -0.001017
     15          6           0       -2.663477    0.253883   -0.000412
     16          6           0       -2.030846   -1.001172   -0.000579
     17          6           0       -0.659275   -1.090378   -0.000754
     18          1           0        0.043663    2.288159   -0.001861
     19          1           0       -2.388438    2.391190   -0.001452
     20          8           0       -3.994385    0.447907   -0.000028
     21          1           0       -2.614116   -1.914518   -0.000683
     22          1           0       -0.211837   -2.074587   -0.001140
     23          6           0       -4.850577   -0.675126    0.001463
     24          1           0       -5.863516   -0.278064    0.002557
     25          1           0       -4.698929   -1.287476   -0.893769
     26          1           0       -4.696677   -1.286765    0.896793
 ---------------------------------------------------------------------

 SCF Done:  E(RwB97XD) =  -577.735611575     A.U. after   16 cycles

 Excitation energies and oscillator strengths:

 Excited State   1:      Triplet-A      2.2527 eV  550.38 nm  f=0.0000  <S**2>=2.000
      46 -> 61        -0.11075
      48 -> 51         0.11165
      49 -> 50         0.67536
      49 <- 50         0.14265
 This state for optimization and/or second-order correction.
 Total Energy, E(TD-HF/TD-KS) =  -577.652826449
 Copying the excited state density for this state as the 1-particle RhoCI density.

 Excited State   2:      Triplet-A      3.7799 eV  328.01 nm  f=0.0000  <S**2>=2.000
      46 -> 50        -0.14263
      46 -> 55        -0.10226
      47 -> 50        -0.13553
      47 -> 51        -0.10658
      48 -> 55         0.10464
      49 -> 51         0.58826
      49 -> 55         0.16596
      49 -> 61         0.11807

 Excited State   3:      Singlet-A      4.0407 eV  306.84 nm  f=0.6824  <S**2>=0.000
      49 -> 50         0.69269

 Excited State   4:      Singlet-A      4.4791 eV  276.81 nm  f=0.0178  <S**2>=0.000
      46 -> 55        -0.11214
      47 -> 50         0.11892
      48 -> 50        -0.20680
      49 -> 51         0.63714

 The electronic state is 1-A.
 Alpha  occ. eigenvalues --  -19.28777 -10.35737 -10.34252 -10.30572 -10.30083
 Alpha  occ. eigenvalues --  -10.29884 -10.29505 -10.29187 -10.28928 -10.28873
 Alpha  occ. eigenvalues --  -10.28764 -10.28732 -10.28695 -10.28682  -1.18693
 Alpha  occ. eigenvalues --   -0.97016  -0.94665  -0.88373  -0.86324  -0.84910
 Alpha  occ. eigenvalues --   -0.83502  -0.78886  -0.72682  -0.71677  -0.68195
 Alpha  occ. eigenvalues --   -0.67231  -0.63925  -0.61236  -0.58290  -0.57840
 Alpha  occ. eigenvalues --   -0.57092  -0.53734  -0.53159  -0.52813  -0.52342
 Alpha  occ. eigenvalues --   -0.50721  -0.49619  -0.48167  -0.47254  -0.45801
 Alpha  occ. eigenvalues --   -0.45293  -0.43673  -0.42627  -0.41579  -0.39999
 Alpha  occ. eigenvalues --   -0.34897  -0.34157  -0.33303  -0.26486
 Alpha virt. eigenvalues --    0.01062   0.04630   0.05762   0.06612   0.07320
 Alpha virt. eigenvalues --    0.07324   0.07929   0.08461   0.09623   0.09636
 Alpha virt. eigenvalues --    0.09961   0.10454   0.10829   0.11844   0.11962

 Mulliken charges:
               1
     1  C    0.862110
     2  C   -0.123345
     3  C   -0.759265
     4  C   -0.335352
     5  C   -0.643328
     6  C   -0.200034
     7  H    0.241970
     8  H    0.238741
     9  H    0.240543
    10  H    0.239401
    11  H    0.242253
    12  C    0.986693
    13  C   -0.422037
    14  C   -0.476921
    15  C   -0.716299
    16  C   -0.072354
    17  C   -0.358568
    18  H    0.246814
    19  H    0.249291
    20  O   -0.050124
    21  H    0.245544
    22  H    0.245673
    23  C   -0.668817
    24  H    0.271486
    25  H    0.257965
    26  H    0.257958
 Sum of Mulliken charges =   0.00000

 Dipole moment (field-independent basis, Debye):
    X=             -1.3596    Y=             -1.2232    Z=              0.0015  Tot=              1.8288
 Quadrupole moment (field-independent basis, Debye-Ang):
   XX=            -68.5691   YY=            -72.6748   ZZ=            -89.7005
   XY=              6.3452   XZ=             -0.0097   YZ=              0.0019

 Normal termination of Gaussian 09 at Wed Oct  4 10:58:50 2017.
