 Gaussian 09, Revision D.01,
 Gaussian 09:  ES64L-G09RevD.01 24-Apr-2013

 -------------------------------------------------------------
 #wb97xd 6-311+G(d) td=(nstates=2,50-50) geom=check guess=read
 -------------------------------------------------------------

 ---------
 m4_s0_opt
 ---------
 Structure from the checkpoint file:  "../m4_t1_opt.chk"
 Charge =  0 Multiplicity = 1

                         Standard orientation:
 ---------------------------------------------------------------------
 Center     Atomic      Atomic             Coordinates (Angstroms)
 Number     Number       Type             X           Y           Z
 ---------------------------------------------------------------------
      1          6           0        1.583852    0.006196   -0.000006
      2          6           0        2.288833   -1.277063    0.000036
      3          6           0        3.654351   -1.347137    0.000121
      4          6           0        4.447729   -0.176264    0.000247
      5          6           0        3.806948    1.087518    0.000444
      6          6           0        2.444961    1.190126    0.000358
      7          1           0        1.726040   -2.201203    0.000013
      8          1           0        4.138321   -2.318837    0.000117
      9          1           0        5.529460   -0.244895    0.000256
     10          1           0        4.409405    1.990641    0.000712
     11          1           0        2.001492    2.177303    0.000670
     12          6           0        0.197979    0.091025   -0.000448
     13          6           0       -0.518763    1.370702   -0.000584
     14          6           0       -1.872513    1.436899   -0.000403
     15          6           0       -2.672582    0.251873   -0.000169
     16          6           0       -2.036273   -1.007522   -0.000494
     17          6           0       -0.669917   -1.100132   -0.000701
     18          1           0        0.037638    2.298449   -0.000871
     19          1           0       -2.383812    2.393642   -0.000466
     20          8           0       -4.009841    0.453936    0.000209
     21          1           0       -2.619450   -1.921432   -0.000650
     22          1           0       -0.227819   -2.086757   -0.001105
     23          6           0       -4.860848   -0.671303    0.000958
     24          1           0       -5.876273   -0.279685    0.001781
     25          1           0       -4.710163   -1.284154   -0.893939
     26          1           0       -4.708663   -1.284067    0.895658
 ---------------------------------------------------------------------

 SCF Done:  E(RwB97XD) =  -577.726965823     A.U. after    2 cycles

 Excitation energies and oscillator strengths:

 Excited State   1:      Triplet-A      1.9857 eV  624.40 nm  f=0.0000  <S**2>=2.000
      49 -> 50         0.68782
      49 <- 50         0.16568
 This state for optimization and/or second-order correction.
 Total Energy, E(TD-HF/TD-KS) =  -577.653994284
 Copying the excited state density for this state as the 1-particle RhoCI density.

 Excited State   2:      Triplet-A      3.7325 eV  332.17 nm  f=0.0000  <S**2>=2.000
      46 -> 50        -0.18254
      47 -> 50        -0.18425
      47 -> 51        -0.11000
      48 -> 55        -0.11602
      49 -> 51         0.54614
      49 -> 55         0.13263
      49 -> 58        -0.13025
      49 -> 61        -0.16367

 Excited State   3:      Singlet-A      3.8451 eV  322.45 nm  f=0.7138  <S**2>=0.000
      49 -> 50         0.69537

 Excited State   4:      Singlet-A      4.4180 eV  280.63 nm  f=0.0096  <S**2>=0.000
      46 -> 55        -0.10345
      47 -> 50         0.11420
      48 -> 50         0.20921
      49 -> 51         0.63870

 The electronic state is 1-A.
 Alpha  occ. eigenvalues --  -19.28953 -10.36045 -10.34258 -10.30775 -10.30372
 Alpha  occ. eigenvalues --  -10.30087 -10.29697 -10.29345 -10.28996 -10.28984
 Alpha  occ. eigenvalues --  -10.28922 -10.28850 -10.28801 -10.28791  -1.18596
 Alpha  occ. eigenvalues --   -0.96809  -0.94443  -0.88292  -0.86421  -0.85014
 Alpha  occ. eigenvalues --   -0.83376  -0.78688  -0.72832  -0.71561  -0.67972
 Alpha  occ. eigenvalues --   -0.67246  -0.63847  -0.61206  -0.58224  -0.58001
 Alpha  occ. eigenvalues --   -0.57077  -0.53675  -0.53103  -0.52755  -0.52326
 Alpha  occ. eigenvalues --   -0.50722  -0.49621  -0.48047  -0.47392  -0.45656
 Alpha  occ. eigenvalues --   -0.45217  -0.44000  -0.42603  -0.41477  -0.39708
 Alpha  occ. eigenvalues --   -0.34949  -0.34292  -0.33449  -0.26116
 Alpha virt. eigenvalues --    0.00479   0.04741   0.05749   0.06615   0.07306
 Alpha virt. eigenvalues --    0.07426   0.07923   0.08449   0.09586   0.09618
 Alpha virt. eigenvalues --    0.09946   0.10341   0.10821   0.11850   0.11952

 Mulliken charges:
               1
     1  C    0.826507
     2  C   -0.112448
     3  C   -0.756041
     4  C   -0.331687
     5  C   -0.650810
     6  C   -0.183114
     7  H    0.241231
     8  H    0.239509
     9  H    0.241940
    10  H    0.239627
    11  H    0.242118
    12  C    0.951943
    13  C   -0.411786
    14  C   -0.489582
    15  C   -0.698299
    16  C   -0.057473
    17  C   -0.350180
    18  H    0.247752
    19  H    0.249334
    20  O   -0.049596
    21  H    0.245978
    22  H    0.246095
    23  C   -0.668899
    24  H    0.271469
    25  H    0.258214
    26  H    0.258199
 Sum of Mulliken charges =   0.00000

 Dipole moment (field-independent basis, Debye):
    X=             -1.4091    Y=             -1.2241    Z=              0.0007  Tot=              1.8665
 Quadrupole moment (field-independent basis, Debye-Ang):
   XX=            -68.6673   YY=            -72.5995   ZZ=            -89.8521
   XY=              6.4014   XZ=             -0.0035   YZ=              0.0010

 Normal termination of Gaussian 09 at Tue Oct  3 18:51:36 2017.
